[{"id": "1", "title": "Shinra Kusakabe Enlists", "type": "Manga Canon", "date": "2019-07-05", "class": "green"}, {"id": "2", "title": "The Heart of a Fire Soldier", "type": "Manga Canon", "date": "2019-07-12", "class": "green"}, {"id": "3", "title": "The Rookie Fire Soldier Games", "type": "Manga Canon", "date": "2019-07-26", "class": "green"}, {"id": "4", "title": "The Hero and the Princess", "type": "Manga Canon", "date": "2019-08-02", "class": "green"}, {"id": "5", "title": "The Battle Begins", "type": "Manga Canon", "date": "2019-08-09", "class": "green"}, {"id": "6", "title": "The Spark of Promise", "type": "Manga Canon", "date": "2019-08-16", "class": "green"}, {"id": "7", "title": "The Investigation of the 1st Commences", "type": "Manga Canon", "date": "2019-08-23", "class": "green"}, {"id": "8", "title": "Infernal Insects", "type": "Manga Canon", "date": "2019-08-30", "class": "green"}, {"id": "9", "title": "The Spreading Malice", "type": "Manga Canon", "date": "2019-09-06", "class": "green"}, {"id": "10", "title": "The Promise", "type": "Manga Canon", "date": "2019-09-13", "class": "green"}, {"id": "11", "title": "Formation of Special Fire Force Company 8 / The Mightiest Hikeshi", "type": "Manga Canon", "date": "2019-09-20", "class": "green"}, {"id": "12", "title": "Eve of Hostilities in Asakusa", "type": "Manga Canon", "date": "2019-10-11", "class": "green"}, {"id": "13", "title": "The Trap is Set", "type": "Manga Canon", "date": "2019-10-18", "class": "green"}, {"id": "14", "title": "For Whom the Flame Burns", "type": "Manga Canon", "date": "2019-10-25", "class": "green"}, {"id": "15", "title": "The Blacksmith's Dream", "type": "Manga Canon", "date": "2019-11-01", "class": "green"}, {"id": "16", "title": "We Are Family", "type": "Manga Canon", "date": "2019-11-08", "class": "green"}, {"id": "17", "title": "Black and White and Gray", "type": "Manga Canon", "date": "2019-11-15", "class": "green"}, {"id": "18", "title": "The Secrets of Pyrokinesis", "type": "Manga Canon", "date": "2019-11-22", "class": "green"}, {"id": "19", "title": "Into the Nether", "type": "Manga Canon", "date": "2019-11-29", "class": "green"}, {"id": "20", "title": "Wearing His Pride", "type": "Manga Canon", "date": "2019-12-06", "class": "green"}, {"id": "21", "title": "Those Connected", "type": "Manga Canon", "date": "2019-12-13", "class": "green"}, {"id": "22", "title": "A Brother's Determination", "type": "Manga Canon", "date": "2019-12-20", "class": "green"}, {"id": "23", "title": "Smiles", "type": "Manga Canon", "date": "2019-12-27", "class": "green"}, {"id": "24", "title": "The Burning Past", "type": "Manga Canon", "date": "2019-12-27", "class": "green"}, {"id": "25", "title": "A Fire Soldier's Fight / A Man\u2019s Fight", "type": "Mixed Canon/Filler", "date": "2020-07-03", "class": "green"}, {"id": "26", "title": "Flames of Madness", "type": "Manga Canon", "date": "2020-07-10", "class": "green"}, {"id": "27", "title": "A New Flashpoint", "type": "Manga Canon", "date": "2020-07-17", "class": "green"}, {"id": "28", "title": "Groping Through the Fire", "type": "Manga Canon", "date": "2020-07-24", "class": "green"}, {"id": "29", "title": "Corna (Sign of the Devil) / A Secret Plan", "type": "Manga Canon", "date": "2020-07-31", "class": "green"}, {"id": "30", "title": "The Time to Choose", "type": "Manga Canon", "date": "2020-08-07", "class": "green"}, {"id": "31", "title": "Road to the Oasis", "type": "Manga Canon", "date": "2020-08-14", "class": "green"}, {"id": "32", "title": "Smoldering Malevolence", "type": "Manga Canon", "date": "2020-08-21", "class": "green"}, {"id": "33", "title": "The Core", "type": "Manga Canon", "date": "2020-08-28", "class": "green"}, {"id": "34", "title": "The Woman in Black", "type": "Manga Canon", "date": "2020-09-04", "class": "green"}, {"id": "35", "title": "Dark Hero", "type": "Manga Canon", "date": "2020-09-11", "class": "green"}, {"id": "36", "title": "Shadows Cast by Divine Light", "type": "Manga Canon", "date": "2020-09-18", "class": "green"}, {"id": "37", "title": "A Pair of One-Eyes", "type": "Manga Canon", "date": "2020-09-25", "class": "green"}, {"id": "38", "title": "The Ashen Reaper", "type": "Manga Canon", "date": "2020-10-03", "class": "green"}, {"id": "39", "title": "A Three-Way Melee", "type": "Manga Canon", "date": "2020-10-10", "class": "green"}, {"id": "40", "title": "Mind Blown", "type": "Manga Canon", "date": "2020-10-17", "class": "green"}, {"id": "41", "title": "Boys, Be Weak", "type": "Manga Canon", "date": "2020-10-24", "class": "green"}, {"id": "42", "title": "The Holy Woman\u2019s Anguish / The Man Assault", "type": "Manga Canon", "date": "2020-10-31", "class": "green"}, {"id": "43", "title": "The Oze Family", "type": "Manga Canon", "date": "2020-11-07", "class": "green"}, {"id": "44", "title": "Weapons of Destruction", "type": "Manga Canon", "date": "2020-11-14", "class": "green"}, {"id": "45", "title": "Enemy Contact", "type": "Manga Canon", "date": "2020-11-21", "class": "green"}, {"id": "46", "title": "Plot for Extinction", "type": "Manga Canon", "date": "2020-11-28", "class": "green"}, {"id": "47", "title": "Firecat ", "type": "Manga Canon", "date": "2020-12-05", "class": "green"}, {"id": "48", "title": "Signs of Upheaval", "type": "Manga Canon", "date": "2020-12-12", "class": "green"}]